HEADER
"PSFversion" "1.00"
"__artInstanceTerminalDelimiter__" "."
"__artHierarchyDelimiter__" "."
"__netlister__" "AMS-UNL"
"__lib__" "project_EACN_SESI"
"__cell__" "ADC_SAR"
"__view__" "config"
"__topcell__" "ADC_SAR"
"__outputformat__" "sst2"
