HEADER
"PSFversion" "1.00"
"Qv" "(FUNCTION or(mappedRoot(\".1@index\") mappedRoot(\".Q\")))v"
"Qv" ".Qv"
"Qv" ".\\1 v"
"Av" "(FUNCTION or(mappedRoot(\".2@index\") mappedRoot(\".A\")))v"
"Av" ".Av"
"Av" ".\\2 v"
"M_i_1n" "PRIMLIB_pmos4_spectre"
"M_i_0n" "PRIMLIB_nmos4_spectre"
