HEADER
"PSFversion" "1.00"
"SW2v" "(FUNCTION or(mappedRoot(\".2@index\") mappedRoot(\".SW2\")))v"
"SW2v" ".SW2v"
"SW2v" ".\\2 v"
"SW1v" "(FUNCTION or(mappedRoot(\".1@index\") mappedRoot(\".SW1\")))v"
"SW1v" ".SW1v"
"SW1v" ".\\1 v"
"SW_CLKv" "(FUNCTION or(mappedRoot(\".3@index\") mappedRoot(\".SW_CLK\")))v"
"SW_CLKv" ".SW_CLKv"
"SW_CLKv" ".\\3 v"
"I39n" "CORELIBD_INVX1_cmos_sch"
"MP5n" "PRIMLIB_pmos4_spectre"
"MN11n" "PRIMLIB_nmos4_spectre"
