HEADER
"PSFversion" "1.00"
"design" "(\"project_EACN_SESI\" \"ADC_SAR\" \"config\" \"\")"
"simulator" "spectre"
"temperature" "27"
"host" ""
"date" "Mar 19 17:59:38 2026"
"title" ""
"analysisList" "()"
END
