HEADER
"PSFversion" "1.00"
"Run Generator" "drlRun rev. 1.0"
"Run Time Stamp" "Apr 16 18:07:40 2026"
"simulator" "spectre"
"date" "Apr 16 18:07:40 2026"
 "externalSweepVariableCount" 0
"#maeTestName" "project_EACN_SESI_prof_comparator_test_students_1"
"#maeHistoryName" "ExplorerRORun.0.RO"
"#maeCorner" "nom"
 "#maeDesignPoint" 1
"netlistDir" "../netlist"
TYPE
"runObject" STRUCT(
"logName" ARRAY( * ) STRING *
"parent" STRING *
"sweepVariable" ARRAY( * ) STRING *
) PROP( "key" "runObject" )
VALUE
"Run1" "runObject" (
(
"logFile"
"artistLogFile"
"matlabLogFile"
)
""
()
)
END
