HEADER
"PSFversion" "1.00"
"simulator" "spectre"
"version" "24.1.0.198.isr3"
"date" "2:11:27 PM, Thur May 7, 2026"
"design" "// Point Netlist Generated on: May  7 14:11:23 2026"
"analysis type" "info"
"analysis name" "designParamVals"
"analysis description" "Circuit Information"
"xVecSorted" "unknown"
"tolerance.relative" 1.000000000000000e-03
TYPE
"top-level" STRUCT(
"temp" FLOAT DOUBLE
"tnom" FLOAT DOUBLE
"temper" FLOAT DOUBLE
"time" FLOAT DOUBLE
"temperature" FLOAT DOUBLE
"vbic_cje" FLOAT DOUBLE
"vbic_cjc" FLOAT DOUBLE
"vbic_cjcp" FLOAT DOUBLE
"vbic_is" FLOAT DOUBLE
"vbic_ibei" FLOAT DOUBLE
"vbic_re" FLOAT DOUBLE
"vbic_rcx" FLOAT DOUBLE
"vbic_rbx" FLOAT DOUBLE
"vbic_tf" FLOAT DOUBLE
"sgp_mpa_cje" FLOAT DOUBLE
"sgp_mpa_cjc" FLOAT DOUBLE
"sgp_mpa_is" FLOAT DOUBLE
"sgp_mpa_bf" FLOAT DOUBLE
"sgp_mpa_re" FLOAT DOUBLE
"sgp_mpa_rb" FLOAT DOUBLE
"sgp_mpa_rc" FLOAT DOUBLE
"ccb0" FLOAT DOUBLE
"isc0" FLOAT DOUBLE
"ikr0" FLOAT DOUBLE
"rc0" FLOAT DOUBLE
"rb0" FLOAT DOUBLE
"vbic_cje_mm" FLOAT DOUBLE
"vbic_cjc_mm" FLOAT DOUBLE
"vbic_cjcp_mm" FLOAT DOUBLE
"vbic_is_mm" FLOAT DOUBLE
"vbic_ibei_mm" FLOAT DOUBLE
"vbic_re_mm" FLOAT DOUBLE
"vbic_rcx_mm" FLOAT DOUBLE
"vbic_rbx_mm" FLOAT DOUBLE
"vbic_tf_mm" FLOAT DOUBLE
"sg13g2_lv_nmos_ctl" FLOAT DOUBLE
"sg13g2_lv_nmos_rsw1" FLOAT DOUBLE
"sg13g2_lv_nmos_muew" FLOAT DOUBLE
"sg13g2_lv_nmos_dphibo" FLOAT DOUBLE
"sg13g2_lv_nmos_dphibl" FLOAT DOUBLE
"sg13g2_lv_nmos_dphibw" FLOAT DOUBLE
"sg13g2_lv_nmos_dphiblw" FLOAT DOUBLE
"sg13g2_lv_nmos_themuo" FLOAT DOUBLE
"sg13g2_lv_nmos_thesatl" FLOAT DOUBLE
"sg13g2_lv_nmos_thesatw" FLOAT DOUBLE
"sg13g2_lv_nmos_thesatlw" FLOAT DOUBLE
"sg13g2_lv_nmos_toxo" FLOAT DOUBLE
"sg13g2_lv_nmos_toxovo" FLOAT DOUBLE
"sg13g2_lv_nmos_cjorbot" FLOAT DOUBLE
"sg13g2_lv_nmos_cjorsti" FLOAT DOUBLE
"sg13g2_lv_nmos_cjorgat" FLOAT DOUBLE
"sg13g2_lv_pmos_ctl" FLOAT DOUBLE
"sg13g2_lv_pmos_rsw1" FLOAT DOUBLE
"sg13g2_lv_pmos_muew" FLOAT DOUBLE
"sg13g2_lv_pmos_dphibo" FLOAT DOUBLE
"sg13g2_lv_pmos_dphibl" FLOAT DOUBLE
"sg13g2_lv_pmos_dphibw" FLOAT DOUBLE
"sg13g2_lv_pmos_dphiblw" FLOAT DOUBLE
"sg13g2_lv_pmos_themuo" FLOAT DOUBLE
"sg13g2_lv_pmos_thesatl" FLOAT DOUBLE
"sg13g2_lv_pmos_thesatw" FLOAT DOUBLE
"sg13g2_lv_pmos_thesatlw" FLOAT DOUBLE
"sg13g2_lv_pmos_toxo" FLOAT DOUBLE
"sg13g2_lv_pmos_toxovo" FLOAT DOUBLE
"sg13g2_lv_pmos_cjorbot" FLOAT DOUBLE
"sg13g2_lv_pmos_cjorsti" FLOAT DOUBLE
"sg13g2_lv_pmos_cjorgat" FLOAT DOUBLE
"sg13g2_lv_svaricap_lap" FLOAT DOUBLE
"sg13g2_lv_svaricap_toxo" FLOAT DOUBLE
"sg13g2_lv_nmos_vfbo_mm" FLOAT DOUBLE
"sg13g2_lv_pmos_vfbo_mm" FLOAT DOUBLE
"sg13g2_lv_svaricap_vfbo_mm" FLOAT DOUBLE
"sg13g2_hv_nmos_rsgo" FLOAT DOUBLE
"sg13g2_hv_nmos_rsw1" FLOAT DOUBLE
"sg13g2_hv_nmos_mueo" FLOAT DOUBLE
"sg13g2_hv_nmos_dphibo" FLOAT DOUBLE
"sg13g2_hv_nmos_dphibl" FLOAT DOUBLE
"sg13g2_hv_nmos_dphibw" FLOAT DOUBLE
"sg13g2_hv_nmos_dphiblw" FLOAT DOUBLE
"sg13g2_hv_nmos_ctl" FLOAT DOUBLE
"sg13g2_hv_nmos_thesato" FLOAT DOUBLE
"sg13g2_hv_nmos_thesatl" FLOAT DOUBLE
"sg13g2_hv_nmos_thesatw" FLOAT DOUBLE
"sg13g2_hv_nmos_thesatlw" FLOAT DOUBLE
"sg13g2_hv_nmos_toxo" FLOAT DOUBLE
"sg13g2_hv_nmos_toxovo" FLOAT DOUBLE
"sg13g2_hv_nmos_cjorbot" FLOAT DOUBLE
"sg13g2_hv_nmos_cjorsti" FLOAT DOUBLE
"sg13g2_hv_nmos_cjorgat" FLOAT DOUBLE
"sg13g2_hv_pmos_rsgo" FLOAT DOUBLE
"sg13g2_hv_pmos_rsw1" FLOAT DOUBLE
"sg13g2_hv_pmos_mueo" FLOAT DOUBLE
"sg13g2_hv_pmos_dphibo" FLOAT DOUBLE
"sg13g2_hv_pmos_dphibl" FLOAT DOUBLE
"sg13g2_hv_pmos_dphibw" FLOAT DOUBLE
"sg13g2_hv_pmos_dphiblw" FLOAT DOUBLE
"sg13g2_hv_pmos_bgidlo" FLOAT DOUBLE
"sg13g2_hv_pmos_thesato" FLOAT DOUBLE
"sg13g2_hv_pmos_thesatl" FLOAT DOUBLE
"sg13g2_hv_pmos_thesatw" FLOAT DOUBLE
"sg13g2_hv_pmos_thesatlw" FLOAT DOUBLE
"sg13g2_hv_pmos_csl" FLOAT DOUBLE
"sg13g2_hv_pmos_toxo" FLOAT DOUBLE
"sg13g2_hv_pmos_toxovo" FLOAT DOUBLE
"sg13g2_hv_pmos_cjorbot" FLOAT DOUBLE
"sg13g2_hv_pmos_cjorsti" FLOAT DOUBLE
"sg13g2_hv_pmos_cjorgat" FLOAT DOUBLE
"sg13g2_hv_svaricap_lap" FLOAT DOUBLE
"sg13g2_hv_svaricap_toxo" FLOAT DOUBLE
"sg13g2_hv_nmos_vfbo_mm" FLOAT DOUBLE
"sg13g2_hv_pmos_vfbo_mm" FLOAT DOUBLE
"sg13g2_hv_svaricap_vfbo_mm" FLOAT DOUBLE
"rsh_rhigh" FLOAT DOUBLE
"rsh_rsil" FLOAT DOUBLE
"rsh_rpnd" FLOAT DOUBLE
"rsh_rppd" FLOAT DOUBLE
"res_area" FLOAT DOUBLE
"res_rpara" FLOAT DOUBLE
"rsh_rhigh_mm" FLOAT DOUBLE
"rsh_rsil_mm" FLOAT DOUBLE
"rsh_rsil_mm2" FLOAT DOUBLE
"rsh_rpnd_mm" FLOAT DOUBLE
"rsh_rppd_mm" FLOAT DOUBLE
"res_area_mm" FLOAT DOUBLE
"res_rpara_mm" FLOAT DOUBLE
"cap_carea" FLOAT DOUBLE
"cap_cpara" FLOAT DOUBLE
"cap_carea_mm" FLOAT DOUBLE
"cap_cpara_mm" FLOAT DOUBLE
"sg13g2_dschottky_nbl1_is" FLOAT DOUBLE
"sg13g2_dschottky_nbl1_kf" FLOAT DOUBLE
"tsv_depth_nom" FLOAT DOUBLE
"tsv_depth_min" FLOAT DOUBLE
"tsv_depth_max" FLOAT DOUBLE
"tsv_depth_1sigma" FLOAT DOUBLE
"tsv_res_nom" FLOAT DOUBLE
"tsv_res_min" FLOAT DOUBLE
"tsv_res_max" FLOAT DOUBLE
"tsv_res_1sigma" FLOAT DOUBLE
"stat_wafer_thick" FLOAT DOUBLE
"stat_tsv_res" FLOAT DOUBLE
"tsv_depth_variation" FLOAT DOUBLE
"tsv_res_variation" FLOAT DOUBLE
) PROP(
"key" "parameters"
)
VALUE
"top-level" "top-level" (
2.700000000000000e+01
2.700000000000000e+01
2.700000000000000e+01
0.000000000000000e+00
2.700000000000000e+01
1.000000000000000e+00
1.000000000000000e+00
1.000000000000000e+00
1.000000000000000e+00
1.000000000000000e+00
1.000000000000000e+00
1.000000000000000e+00
1.000000000000000e+00
1.000000000000000e+00
1.000000000000000e+00
1.000000000000000e+00
1.000000000000000e+00
1.000000000000000e+00
1.000000000000000e+00
1.000000000000000e+00
1.000000000000000e+00
9.700000000000000e-16
2.000000000000000e-23
4.000000000000000e-07
1.000000000000000e+03
7.000000000000000e+02
1.000000000000000e+00
1.000000000000000e+00
1.000000000000000e+00
1.000000000000000e+00
1.000000000000000e+00
1.000000000000000e+00
1.000000000000000e+00
1.000000000000000e+00
1.000000000000000e+00
1.208000000000000e+00
7.200000000000000e-01
8.500000000000000e-01
9.915000000000000e-01
9.693000000000001e-01
9.749000000000000e-01
9.754000000000000e-01
8.757000000000000e-01
7.850000000000000e-01
1.500000000000000e+00
6.127000000000000e-01
1.000000000000000e+00
1.000000000000000e+00
1.000000000000000e+00
1.000000000000000e+00
1.000000000000000e+00
1.957000000000000e+00
7.720000000000000e-01
1.052000000000000e+00
9.050000000000000e-01
8.550000000000000e-01
-1.580000000000000e+00
1.000000000000000e+00
9.580000000000000e-01
5.510000000000000e-01
1.080000000000000e+00
1.000000000000000e+00
1.000000000000000e+00
1.000000000000000e+00
1.000000000000000e+00
1.000000000000000e+00
1.000000000000000e+00
1.082000000000000e+00
1.000000000000000e+00
1.000000000000000e+00
1.000000000000000e+00
1.000000000000000e+00
1.000000000000000e+00
7.886000000000000e-01
1.078000000000000e+00
1.438800000000000e+00
1.529900000000000e+00
1.000000000000000e+00
8.712000000000000e-01
1.000000000000000e+00
1.000000000000000e+00
1.035000000000000e+00
1.000000000000000e+00
1.605000000000000e+00
1.000000000000000e+00
1.000000000000000e+00
1.000000000000000e+00
1.000000000000000e+00
1.000000000000000e+00
1.111000000000000e+00
1.000000000000000e+00
9.605000000000000e-01
1.001000000000000e+00
9.504000000000000e-01
1.408000000000000e+00
-1.693000000000000e-01
8.409000000000000e-01
1.000000000000000e+00
4.814000000000000e-01
5.774500000000000e+00
1.000000000000000e+00
1.000000000000000e+00
1.000000000000000e+00
1.000000000000000e+00
1.000000000000000e+00
1.000000000000000e+00
1.000000000000000e+00
8.000000000000000e-01
1.000000000000000e+00
1.000000000000000e+00
1.000000000000000e+00
1.000000000000000e+00
1.000000000000000e+00
1.000000000000000e+00
1.000000000000000e+00
1.000000000000000e+00
1.000000000000000e+00
1.000000000000000e+00
1.000000000000000e+00
1.000000000000000e+00
1.000000000000000e+00
1.000000000000000e+00
1.000000000000000e+00
1.000000000000000e+00
1.000000000000000e+00
1.000000000000000e+00
1.000000000000000e+00
1.000000000000000e+00
1.000000000000000e+00
1.280000000000000e+00
1.000000000000000e+00
6.499999999999999e-05
5.500000000000000e-05
6.999999999999999e-05
2.564102564102564e-02
9.000000000000000e-02
7.000000000000001e-02
1.100000000000000e-01
7.407407407407406e-02
0.000000000000000e+00
0.000000000000000e+00
1.000000000000000e+00
1.000000000000000e+00
)
END
