HEADER
"PSFversion" "1.00"
"design" "(\"project_EACN_SESI\" \"comparator_test_students\" \"schematic\" \"\")"
"simulator" "spectre"
"temperature" "27"
"host" ""
"date" "Apr 16 15:35:27 2026"
"title" ""
"analysisList" "()"
END
