HEADER
"PSFversion" "1.00"
"simulator" "spectre"
"version" "24.1.0.198.isr3"
"date" "2:11:27 PM, Thur May 7, 2026"
"design" "// Point Netlist Generated on: May  7 14:11:23 2026"
"analysis type" "info.subckts"
"analysis name" "subckts"
"analysis description" "Circuit Information"
"xVecSorted" "unknown"
"tolerance.relative" 1.000000000000000e-03
TYPE
"subckt" STRUCT(
"subckt_file" STRING *
"subckt_params" STRING *
"subckt_terminals" STRING *
"subckt_instances" STRING *
) PROP(
"key" "sub"
)
VALUE
"dnw" "subckt" (
"/users/soft/techno/dev/IHP/sg13/SG13G2_618_rev1.3.3/tech/SG13G2_PASSIVES/spectre/SG13_diodes.lib 351"
""
""
""
)
"idiodevdd_2kv" "subckt" (
"/users/soft/techno/dev/IHP/sg13/SG13G2_618_rev1.3.3/tech/SG13_ESD/spectre/SG13_esd.lib 118"
""
""
""
)
"sg13_lv_nmos" "subckt" (
"/users/soft/techno/dev/IHP/sg13/SG13G2_618_rev1.3.3/tech/SG13_MOS/library/spectreG2/sg13g2_moslv_psp_mod.lib 79"
"mfact ng wmin z2 ad z1 as pd trise w ps l rfmode pre_layout"
"d g s b"
"N5 N4 N3 N2 N1 N0 I12.N2 I12.M0 I12.N1 I12.MN2 I12.MN6 I12.MN1 I12.MN8 I12.MN5 I12.MN11 I12.MN10 I12.MN12 I12.MN9 I12.MN7 I12.MN3 I12.MN4 I12.M3 I12.N0 I25.N11 I25.N3 I24.N11 I24.N3"
)
"inductor3" "subckt" (
"/users/soft/techno/dev/IHP/sg13/SG13G2_618_rev1.3.3/tech/SG13G2_PASSIVES/spectre/SG13_cap.lib 183"
""
""
""
)
"ptap1" "subckt" (
"/users/soft/techno/dev/IHP/sg13/SG13G2_618_rev1.3.3/tech/SG13G2_PASSIVES/spectre/SG13_res.lib 56"
""
""
""
)
"sg13_hv_nmos" "subckt" (
"/users/soft/techno/dev/IHP/sg13/SG13G2_618_rev1.3.3/tech/SG13_MOS/library/spectreG2/sg13g2_moshv_psp_mod.lib 79"
""
""
""
)
"pdnw" "subckt" (
"/users/soft/techno/dev/IHP/sg13/SG13G2_618_rev1.3.3/tech/SG13G2_PASSIVES/spectre/SG13_diodes.lib 320"
""
""
""
)
"pnpMPA" "subckt" (
"/users/soft/techno/dev/IHP/sg13/SG13G2_618_rev1.3.3/tech/SG13G2_HBT/VBIC/spectre/SG13G2_hbt_vbic.lib 468"
""
""
""
)
"nmoscl_2" "subckt" (
"/users/soft/techno/dev/IHP/sg13/SG13G2_618_rev1.3.3/tech/SG13_ESD/spectre/SG13_esd.lib 545"
""
""
""
)
"ntap1" "subckt" (
"/users/soft/techno/dev/IHP/sg13/SG13G2_618_rev1.3.3/tech/SG13G2_PASSIVES/spectre/SG13_res.lib 62"
""
""
""
)
"pad" "subckt" (
"/users/soft/techno/dev/IHP/sg13/SG13G2_618_rev1.3.3/tech/SG13_PASSIVES/spectre/SG13_bondpad.lib 15"
""
""
""
)
"NA2JIX0" "subckt" (
"input.scs 101"
""
"Q A B inh_VDD inh_VSS"
"I25 I24"
)
"isolbox" "subckt" (
"/users/soft/techno/dev/IHP/sg13/SG13G2_618_rev1.3.3/tech/SG13G2_PASSIVES/spectre/SG13_cap.lib 211"
""
""
""
)
"cap_rfcmim" "subckt" (
"/users/soft/techno/dev/IHP/sg13/SG13G2_618_rev1.3.3/tech/SG13G2_PASSIVES/spectre/SG13_cap.lib 104"
""
""
""
)
"pad_model" "subckt" (
"/users/soft/techno/dev/IHP/sg13/SG13G2_618_rev1.3.3/tech/SG13_PASSIVES/spectre/SG13_bondpad.lib 19"
""
""
""
)
"dantenna" "subckt" (
"/users/soft/techno/dev/IHP/sg13/SG13G2_618_rev1.3.3/tech/SG13G2_PASSIVES/spectre/SG13_diodes.lib 64"
""
""
""
)
"npn13G2l" "subckt" (
"/users/soft/techno/dev/IHP/sg13/SG13G2_618_rev1.3.3/tech/SG13G2_HBT/VBIC/spectre/SG13G2_hbt_vbic.lib 206"
""
""
""
)
"idiodevdd_4kv" "subckt" (
"/users/soft/techno/dev/IHP/sg13/SG13G2_618_rev1.3.3/tech/SG13_ESD/spectre/SG13_esd.lib 238"
""
""
""
)
"sg13_hv_svaricap" "subckt" (
"/users/soft/techno/dev/IHP/sg13/SG13G2_618_rev1.3.3/tech/SG13_MOS/library/spectreG2/sg13g2_svaricaphv_mosvar_mod.lib 48"
""
""
""
)
"sg13_lv_pmos" "subckt" (
"/users/soft/techno/dev/IHP/sg13/SG13G2_618_rev1.3.3/tech/SG13_MOS/library/spectreG2/sg13g2_moslv_psp_mod.lib 126"
"mfact ng wmin z2 ad z1 as pd trise w ps l rfmode pre_layout"
"d g s b"
"P3 P2 P1 P0 I12.P2 I12.P1 I12.P0 I12.M1 I12.MP3 I12.MP1 I12.MP9 I12.MP6 I12.MP8 I12.M2 I12.MP2 I12.MP12 I12.MP11 I12.MP10 I12.MP4 I12.MP7 I12.MP5 I25.P3 I25.P11 I24.P3 I24.P11"
)
"cap_cmim" "subckt" (
"/users/soft/techno/dev/IHP/sg13/SG13G2_618_rev1.3.3/tech/SG13G2_PASSIVES/spectre/SG13_cap.lib 84"
""
""
""
)
"diodevss_2kv" "subckt" (
"/users/soft/techno/dev/IHP/sg13/SG13G2_618_rev1.3.3/tech/SG13_ESD/spectre/SG13_esd.lib 307"
""
""
""
)
"sg13_hv_pmos" "subckt" (
"/users/soft/techno/dev/IHP/sg13/SG13G2_618_rev1.3.3/tech/SG13_MOS/library/spectreG2/sg13g2_moshv_psp_mod.lib 126"
""
""
""
)
"dummy1" "subckt" (
"/users/soft/techno/dev/IHP/sg13/SG13G2_618_rev1.3.3/tech/SG13G2_PASSIVES/spectre/SG13_diodes.lib 312"
""
""
""
)
"Cparasitic" "subckt" (
"/users/soft/techno/dev/IHP/sg13/SG13G2_618_rev1.3.3/tech/SG13G2_PASSIVES/spectre/SG13_cap.lib 63"
""
""
""
)
"diodevdd_4kv" "subckt" (
"/users/soft/techno/dev/IHP/sg13/SG13G2_618_rev1.3.3/tech/SG13_ESD/spectre/SG13_esd.lib 186"
""
""
""
)
"dschottky_nbl1" "subckt" (
"/users/soft/techno/dev/IHP/sg13/SG13G2_618_rev1.3.3/tech/SG13G2_PASSIVES/spectre/sg13g2_dschottky_nbl1_mod.lib 62"
""
""
""
)
"nmoscl_4" "subckt" (
"/users/soft/techno/dev/IHP/sg13/SG13G2_618_rev1.3.3/tech/SG13_ESD/spectre/SG13_esd.lib 882"
""
""
""
)
"DFRRSQJIX1" "subckt" (
"input.scs 26"
""
"Q C D RN SN inh_VDD inh_VSS"
"I12"
)
"res_rsil" "subckt" (
"/users/soft/techno/dev/IHP/sg13/SG13G2_618_rev1.3.3/tech/SG13G2_PASSIVES/spectre/SG13_res.lib 85"
""
""
""
)
"dpantenna" "subckt" (
"/users/soft/techno/dev/IHP/sg13/SG13G2_618_rev1.3.3/tech/SG13G2_PASSIVES/spectre/SG13_diodes.lib 162"
""
""
""
)
"tsv_model" "subckt" (
"/users/soft/techno/dev/IHP/sg13/SG13G2_618_rev1.3.3/tech/SG13_PASSIVES/spectre/SG13_tsv.lib 30"
""
""
""
)
"diodevss_4kv" "subckt" (
"/users/soft/techno/dev/IHP/sg13/SG13G2_618_rev1.3.3/tech/SG13_ESD/spectre/SG13_esd.lib 427"
""
""
""
)
"npn13G2" "subckt" (
"/users/soft/techno/dev/IHP/sg13/SG13G2_618_rev1.3.3/tech/SG13G2_HBT/VBIC/spectre/SG13G2_hbt_vbic.lib 75"
""
""
""
)
"idiodevss_2kv" "subckt" (
"/users/soft/techno/dev/IHP/sg13/SG13G2_618_rev1.3.3/tech/SG13_ESD/spectre/SG13_esd.lib 359"
""
""
""
)
"tsv" "subckt" (
"/users/soft/techno/dev/IHP/sg13/SG13G2_618_rev1.3.3/tech/SG13_PASSIVES/spectre/SG13_tsv.lib 22"
""
""
""
)
"Rparasitic" "subckt" (
"/users/soft/techno/dev/IHP/sg13/SG13G2_618_rev1.3.3/tech/SG13G2_PASSIVES/spectre/SG13_res.lib 75"
""
""
""
)
"bondpad_model" "subckt" (
"/users/soft/techno/dev/IHP/sg13/SG13G2_618_rev1.3.3/tech/SG13_PASSIVES/spectre/SG13_bondpad.lib 12"
""
""
""
)
"diodevdd_2kv" "subckt" (
"/users/soft/techno/dev/IHP/sg13/SG13G2_618_rev1.3.3/tech/SG13_ESD/spectre/SG13_esd.lib 66"
""
""
""
)
"npn13G2v" "subckt" (
"/users/soft/techno/dev/IHP/sg13/SG13G2_618_rev1.3.3/tech/SG13G2_HBT/VBIC/spectre/SG13G2_hbt_vbic.lib 337"
""
""
""
)
"bondpad" "subckt" (
"/users/soft/techno/dev/IHP/sg13/SG13G2_618_rev1.3.3/tech/SG13_PASSIVES/spectre/SG13_bondpad.lib 8"
""
""
""
)
"res_rhigh" "subckt" (
"/users/soft/techno/dev/IHP/sg13/SG13G2_618_rev1.3.3/tech/SG13G2_PASSIVES/spectre/SG13_res.lib 146"
""
""
""
)
"diode_pp" "subckt" (
"/users/soft/techno/dev/IHP/sg13/SG13G2_618_rev1.3.3/tech/SG13G2_PASSIVES/spectre/SG13_diodes.lib 258"
""
""
""
)
"idiodevss_4kv" "subckt" (
"/users/soft/techno/dev/IHP/sg13/SG13G2_618_rev1.3.3/tech/SG13_ESD/spectre/SG13_esd.lib 478"
""
""
""
)
"res_rppd" "subckt" (
"/users/soft/techno/dev/IHP/sg13/SG13G2_618_rev1.3.3/tech/SG13G2_PASSIVES/spectre/SG13_res.lib 208"
""
""
""
)
END
