HEADER
"PSFversion" "1.00"
"__NEXT_FILE__" "project_EACN_SESI_ADC_SAR_schematic"
