HEADER
"PSFversion" "1.00"
"VDD!v" "VDD!v"
"VSS!v" "VSS!v"
"gnd!v" "0v"
"vdd!v" "vdd!v"
