HEADER
"PSFversion" "1.00"
"sub!v" "sub!v"
"vdd!v" "vdd!v"
"gnd!v" "0v"
