HEADER
"PSFversion" "1.00"
"design" "(\"cours_EACN_SESI\" \"quad_resference\" \"schematic\" \"\")"
"simulator" "spectre"
"temperature" "27"
"host" ""
"date" "Apr  9 15:42:22 2026"
"title" ""
"analysisList" "()"
END
