HEADER
"PSFversion" "1.00"
"Time Stamp" "May  7 15:52:05 2026"
TYPE
"variable" STRUCT(
"value" FLOAT DOUBLE
) PROP( "key" "element" )
VALUE
"temp" "variable" ( 27 ) PROP( )
END
