HEADER
"PSFversion" "1.00"
"design" "(\"project_EACN_SESI\" \"ADC_SAR\" \"config\" \"\")"
"simulator" "ams"
"temperature" "27"
"host" ""
"date" "Mar 19 10:59:28 2026"
"title" ""
"analysisList" "()"
END
