HEADER
"PSFversion" "1.00"
"Time Stamp" "Mar 19 10:59:28 2026"
TYPE
"variable" STRUCT(
"value" FLOAT DOUBLE
) PROP( "key" "element" )
VALUE
"Cu" "variable" ( 10e-15 ) PROP( )
"temp" "variable" ( 27 ) PROP( )
END
