HEADER
"PSFversion" "1.00"
"design" "(\"project_EACN_SESI\" \"ADC_SAR\" \"config\" \"\")"
"simulator" "ams"
"temperature" "27"
"host" ""
"date" "Apr  2 10:10:28 2026"
"title" ""
"analysisList" "()"
END
