HEADER
"PSFversion" "1.00"
"Time Stamp" "Apr  2 17:12:16 2026"
TYPE
"variable" STRUCT(
"value" FLOAT DOUBLE
) PROP( "key" "element" )
VALUE
"vd" "variable" ( 10e-3 ) PROP( )
"temp" "variable" ( 27 ) PROP( )
END
