HEADER
"PSFversion" "1.00"
"design" "(\"cours_EACN_SESI\" \"bandgap\" \"schematic\" \"\")"
"simulator" "spectre"
"temperature" "30"
"host" ""
"date" "May  7 17:10:14 2026"
"title" ""
"analysisList" "()"
END
