HEADER
"PSFversion" "1.00"
"Time Stamp" "May  7 17:10:14 2026"
TYPE
"variable" STRUCT(
"value" FLOAT DOUBLE
) PROP( "key" "element" )
VALUE
"R1" "variable" ( 1000 ) PROP( )
"Vdc" "variable" ( 0 ) PROP( )
"temp" "variable" ( 30 ) PROP( )
END
