HEADER
"PSFversion" "1.00"
"design" "(\"cours_EACN_SESI\" \"bandgap\" \"schematic\" \"\")"
"simulator" "spectre"
"temperature" "27"
"host" ""
"date" "May  7 16:40:46 2026"
"title" ""
"analysisList" "()"
END
