HEADER
"PSFversion" "1.00"
"inv" ".inv"
"refv" ".refv"
"outv" ".outv"
