HEADER
"PSFversion" "1.00"
"Run Generator" "drlRun rev. 1.0"
"Run Time Stamp" "Apr  9 15:40:22 2026"
"date" "Apr  9 15:40:22 2026"
"simulator" "spectre"
"netlistDir" "../netlist"
"axlParamFlag" "true"
"#maeHistoryName" "ExplorerRun.0"
"#maeTestName" "cours_EACN_SESI_bandgap_1"
 "externalSweepVariableCount" 1
TYPE
"runObject" STRUCT(
"logName" ARRAY( * ) STRING *
"parent" STRING *
"sweepVariable" ARRAY( * ) STRING *
) PROP( "key" "runObject" )
VALUE
"Root" "runObject" (
("")
""
("R2")
)
"R2=60000.0" "runObject" (
(
"../../../1/cours_EACN_SESI_bandgap_1/psf/logFile"
"../../../1/cours_EACN_SESI_bandgap_1/psf/artistLogFile"
"../../../1/cours_EACN_SESI_bandgap_1/psf/matlabLogFile"
)
"Root"
()
) PROP(
 "#maeDesignPoint" 1
"#maeCorner" "nom"
 "#pointID" 1
"netlistDir" "../../../1/cours_EACN_SESI_bandgap_1/netlist"
"dataDir" "../../../1/cours_EACN_SESI_bandgap_1"
 "R2" 6.000000e+04
)

"R2=70000.0" "runObject" (
(
"../../../2/cours_EACN_SESI_bandgap_1/psf/logFile"
"../../../2/cours_EACN_SESI_bandgap_1/psf/artistLogFile"
"../../../2/cours_EACN_SESI_bandgap_1/psf/matlabLogFile"
)
"Root"
()
) PROP(
 "#maeDesignPoint" 2
"#maeCorner" "nom"
 "#pointID" 2
"netlistDir" "../../../2/cours_EACN_SESI_bandgap_1/netlist"
"dataDir" "../../../2/cours_EACN_SESI_bandgap_1"
 "R2" 7.000000e+04
)

"R2=80000.0" "runObject" (
(
"../../../3/cours_EACN_SESI_bandgap_1/psf/logFile"
"../../../3/cours_EACN_SESI_bandgap_1/psf/artistLogFile"
"../../../3/cours_EACN_SESI_bandgap_1/psf/matlabLogFile"
)
"Root"
()
) PROP(
 "#maeDesignPoint" 3
"#maeCorner" "nom"
 "#pointID" 3
"netlistDir" "../../../3/cours_EACN_SESI_bandgap_1/netlist"
"dataDir" "../../../3/cours_EACN_SESI_bandgap_1"
 "R2" 8.000000e+04
)

"R2=90000.0" "runObject" (
(
"../../../4/cours_EACN_SESI_bandgap_1/psf/logFile"
"../../../4/cours_EACN_SESI_bandgap_1/psf/artistLogFile"
"../../../4/cours_EACN_SESI_bandgap_1/psf/matlabLogFile"
)
"Root"
()
) PROP(
 "#maeDesignPoint" 4
"#maeCorner" "nom"
 "#pointID" 4
"netlistDir" "../../../4/cours_EACN_SESI_bandgap_1/netlist"
"dataDir" "../../../4/cours_EACN_SESI_bandgap_1"
 "R2" 9.000000e+04
)

END
