HEADER
"PSFversion" "1.00"
"dv" ".dv"
"env" ".env"
"qv" ".qv"
