HEADER
"PSFversion" "1.00"
"design" "(\"cours_EACN_SESI\" \"comparator\" \"schematic\" \"\")"
"simulator" "spectre"
"temperature" "27"
"host" ""
"date" "Apr  2 23:37:07 2026"
"title" ""
"analysisList" "()"
END
