HEADER
"PSFversion" "1.00"
"design" "(\"project_EACN_SESI\" \"ADC_SAR\" \"config\" \"\")"
"simulator" "ams"
"temperature" "27"
"host" ""
"date" "Apr 16 17:29:30 2026"
"title" ""
"analysisList" "()"
END
