HEADER
"PSFversion" "1.00"
"Time Stamp" "Apr 16 17:29:00 2026"
TYPE
"variable" STRUCT(
"value" FLOAT DOUBLE
) PROP( "key" "element" )
VALUE
"Cu" "variable" ( 200e-15 ) PROP( )
"vin" "variable" ( 900e-3 ) PROP( )
"temperature" "variable" ( 27 ) PROP( )
"temp" "variable" ( 27 ) PROP( )
END
