HEADER
"PSFversion" "1.00"
"PLUSv" ":1v"
"MINUSv" ":2v"
"TIEv" ":3v"
