HEADER
"PSFversion" "1.00"
"Time Stamp" "Apr 16 15:35:37 2026"
TYPE
"variable" STRUCT(
"value" FLOAT DOUBLE
) PROP( "key" "element" )
VALUE
"temp" "variable" ( 27 ) PROP( )
END
