HEADER
"PSFversion" "1.00"
"design" "(\"project_EACN_SESI\" \"clock_gen\" \"schematic\" \"\")"
"simulator" "spectre"
"temperature" "27"
"host" ""
"date" "May  7 15:51:56 2026"
"title" ""
"analysisList" "()"
END
