HEADER
"PSFversion" "1.00"
"Time Stamp" "Apr  2 09:50:11 2026"
TYPE
"variable" STRUCT(
"value" FLOAT DOUBLE
) PROP( "key" "element" )
VALUE
"Cu" "variable" ( 20e-15 ) PROP( )
"temperature" "variable" ( 27 ) PROP( )
"temp" "variable" ( 27 ) PROP( )
END
