HEADER
"PSFversion" "1.00"
"vsw1v" ".vsw1v"
"vsw2v" ".vsw2v"
"vswcv" ".vswcv"
"vswc0v" ".vswc0v"
"vswc1v" ".vswc1v"
"vswc2v" ".vswc2v"
"vswc3v" ".vswc3v"
"cout<0>v" ".cout[0]v"
"cout<1>v" ".cout[1]v"
"cout<2>v" ".cout[2]v"
"cout<3>v" ".cout[3]v"
"clkv" ".clkv"
"compv" ".compv"
