HEADER
"PSFversion" "1.00"
"M_i_1n" "PRIMLIB_pmos4_spectre"
"M_i_0n" "PRIMLIB_nmos4_spectre"
"Av" ":1v"
"Qv" ":2v"
"gnd!v" ":3v"
"vdd!v" ":4v"
