HEADER
"PSFversion" "1.00"
"design" "(\"cours_EACN_SESI\" \"bandgap\" \"schematic\" \"\")"
"simulator" "spectre"
"temperature" "27"
"host" ""
"date" "Apr  9 15:40:09 2026"
"title" ""
"analysisList" "()"
END
