HEADER
"PSFversion" "1.00"
"Run Generator" "drlRun rev. 1.0"
"Run Time Stamp" "Apr 16 18:07:49 2026"
"date" "Apr 16 18:07:49 2026"
"simulator" "spectre"
"netlistDir" "../netlist"
"axlParamFlag" "true"
"#maeHistoryName" "ExplorerRORun.0.RO"
"#maeTestName" "project_EACN_SESI_prof_comparator_test_students_1"
 "externalSweepVariableCount" 1
TYPE
"runObject" STRUCT(
"logName" ARRAY( * ) STRING *
"parent" STRING *
"sweepVariable" ARRAY( * ) STRING *
) PROP( "key" "runObject" )
VALUE
"Root" "runObject" (
("")
""
("Design_Point")
)
"Design_Point=1.0" "runObject" (
(
"../../../1/project_EACN_SESI_prof_comparator_test_students_1/psf/logFile"
"../../../1/project_EACN_SESI_prof_comparator_test_students_1/psf/artistLogFile"
"../../../1/project_EACN_SESI_prof_comparator_test_students_1/psf/matlabLogFile"
)
"Root"
()
) PROP(
 "#maeDesignPoint" 1
"#maeCorner" "nom"
 "#pointID" 1
"netlistDir" "../../../1/project_EACN_SESI_prof_comparator_test_students_1/netlist"
"dataDir" "../../../1/project_EACN_SESI_prof_comparator_test_students_1"
 "Design_Point" 1.000000e+00
)

END
