HEADER
"PSFversion" "1.00"
"N2n N0n N5n N4n N1n" "SG13_dev_nmos_spectre"
"R1n R0n" "analogLib_res_spectre"
"V2n V1n V0n" "analogLib_vdc_spectre"
"P1n P0n" "SG13_dev_pmos_spectre"
