HEADER
"PSFversion" "1.00"
"Time Stamp" "Apr  9 17:28:28 2026"
TYPE
"variable" STRUCT(
"value" FLOAT DOUBLE
) PROP( "key" "element" )
VALUE
"vdd" "variable" ( 1.2 ) PROP( )
"Vg" "variable" ( 600e-3 ) PROP( )
"temp" "variable" ( 27 ) PROP( )
END
