HEADER
"PSFversion" "1.00"
"Av" "(FUNCTION or(mappedRoot(\".2@index\") mappedRoot(\".A\")))v"
"Av" ".Av"
"Av" ".\\2 v"
"Qv" "(FUNCTION or(mappedRoot(\".1@index\") mappedRoot(\".Q\")))v"
"Qv" ".Qv"
"Qv" ".\\1 v"
"VDDv" ".VDDv"
"VSSv" ".VSSv"
"P0n" "SG13_dev_pmos_spectre"
"N0n" "SG13_dev_nmos_spectre"
